                         Program Version 6.0.1  -  RELEASE   -
|  1> %pal nprocs 16 end
|  2> %maxcore 2000
|  3> ! pbe0 d4 def2-SVP freq RIJCOSX Def2/J defgrid3 TightSCF
|  4>
|  5> * xyzfile 0 1 uracil_s0.xyz
|  6>
|  7>
|  8>                          ****END OF INPUT****

CARTESIAN COORDINATES (ANGSTROEM)
---------------------------------
  C      0.714123    1.012224    0.553675
  N      1.488072    0.073180   -0.146480
  C      1.150596   -1.207575   -0.524939
  N     -0.134035   -1.563586   -0.137278
  C     -0.976315   -0.732774    0.546980
  C     -0.613397    0.517887    0.902398
  O      1.880974   -1.954516   -1.129227
  H     -1.282636    1.180838    1.447013
  O      1.159404    2.106817    0.811265
  H      2.421340    0.374717   -0.410798
  H     -0.415929   -2.499834   -0.399300
  H     -1.957967   -1.148134    0.785012

 Total Charge           Charge          ....    0
 Multiplicity           Mult            ....    1
 Number of Electrons    NEL             ....   58
 Basis Dimension        Dim             ....  132

ORBITAL ENERGIES
----------------

  NO   OCC          E(Eh)            E(eV)
   0   2.0000     -19.196322      -522.3585
   1   2.0000     -19.188830      -522.1546
   2   2.0000     -14.470108      -393.7517
   3   2.0000     -14.449141      -393.1811
   4   2.0000     -10.387798      -282.6663
   5   2.0000     -10.353117      -281.7226
   6   2.0000     -10.323144      -280.9070
   7   2.0000     -10.255441      -279.0647
   8   2.0000      -1.106465       -30.1084
   9   2.0000      -1.069081       -29.0912
  10   2.0000      -1.007336       -27.4110
  11   2.0000      -0.950624       -25.8678
  12   2.0000      -0.820795       -22.3350
  13   2.0000      -0.714812       -19.4510
  14   2.0000      -0.687146       -18.6982
  15   2.0000      -0.619647       -16.8614
  16   2.0000      -0.584462       -15.9040
  17   2.0000      -0.540871       -14.7178
  18   2.0000      -0.507108       -13.7991
  19   2.0000      -0.489821       -13.3287
  20   2.0000      -0.468399       -12.7458
  21   2.0000      -0.441296       -12.0083
  22   2.0000      -0.436451       -11.8764
  23   2.0000      -0.429051       -11.6751
  24   2.0000      -0.392238       -10.6733
  25   2.0000      -0.315787        -8.5930
  26   2.0000      -0.305113        -8.3025
  27   2.0000      -0.283226        -7.7070
  28   2.0000      -0.268843        -7.3156
  29   0.0000      -0.042289        -1.1507
  30   0.0000       0.014829         0.4035
  31   0.0000       0.039323         1.0700
  32   0.0000       0.090763         2.4698
  33   0.0000       0.096065         2.6141

MULLIKEN ATOMIC CHARGES
-----------------------
   0 C :    0.239040
   1 N :   -0.230254
   2 C :    0.264256
   3 N :   -0.198210
   4 C :    0.145111
   5 C :   -0.189112
   6 O :   -0.243865
   7 H :    0.053634
   8 O :   -0.236995
   9 H :    0.167569
  10 H :    0.167692
  11 H :    0.061135
Sum of atomic charges:   -0.0000000

LOEWDIN ATOMIC CHARGES
----------------------
   0 C :    0.071807
   1 N :   -0.006732
   2 C :    0.082015
   3 N :    0.016778
   4 C :    0.060838
   5 C :   -0.124626
   6 O :   -0.213508
   7 H :    0.052177
   8 O :   -0.194581
   9 H :    0.105824
  10 H :    0.104658
  11 H :    0.045350

  Mayer bond orders larger than 0.100000
B(  0-C ,  1-N ) :   1.0235 B(  0-C ,  5-C ) :   1.0545 B(  0-C ,  8-O ) :   2.1041
B(  1-N ,  2-C ) :   1.0922 B(  1-N ,  9-H ) :   0.9000 B(  2-C ,  3-N ) :   1.0443
B(  2-C ,  6-O ) :   2.1219 B(  3-N ,  4-C ) :   1.1588 B(  3-N , 10-H ) :   0.9150
B(  4-C ,  5-C ) :   1.6777 B(  4-C , 11-H ) :   0.9562 B(  5-C ,  7-H ) :   0.9731

Dispersion correction           -0.009750613
FINAL SINGLE POINT ENERGY      -414.081271603853

DIPOLE MOMENT
-------------

Method             : SCF
Type of density    : Electron Density
Multiplicity       :   1
Irrep              :   0
Energy             :  -414.0715209907094163 Eh
Relativity type    :
Basis              : AO
                                X                 Y                 Z
Electronic contribution:      2.097355707       0.168207850      -0.798813094
Nuclear contribution   :     -3.464089905      -1.106846415       0.985092744
                        -----------------------------------------
Total Dipole Moment    :     -1.366734198      -0.938638566       0.186279650
                        -----------------------------------------
Magnitude (a.u.)       :      1.668443836
Magnitude (Debye)      :      4.240847205

VIBRATIONAL FREQUENCIES
-----------------------

Scaling factor for frequencies =  1.000000000  (already applied!)

     0:       0.00 cm**-1
     1:       0.00 cm**-1
     2:       0.00 cm**-1
     3:       0.00 cm**-1
     4:       0.00 cm**-1
     5:       0.00 cm**-1
     6:     156.13 cm**-1
     7:     173.60 cm**-1
     8:     396.53 cm**-1
     9:     405.92 cm**-1
    10:     525.43 cm**-1
    11:     553.45 cm**-1
    12:     571.37 cm**-1
    13:     597.72 cm**-1
    14:     706.08 cm**-1
    15:     738.94 cm**-1
    16:     789.90 cm**-1
    17:     797.33 cm**-1
    18:     829.55 cm**-1
    19:     982.78 cm**-1
    20:     986.96 cm**-1
    21:    1000.68 cm**-1
    22:    1097.93 cm**-1
    23:    1211.69 cm**-1
    24:    1248.64 cm**-1
    25:    1390.97 cm**-1
    26:    1417.77 cm**-1
    27:    1441.29 cm**-1
    28:    1534.59 cm**-1
    29:    1719.41 cm**-1
    30:    1865.38 cm**-1
    31:    1900.50 cm**-1
    32:    3235.60 cm**-1
    33:    3280.54 cm**-1
    34:    3638.48 cm**-1
    35:    3677.34 cm**-1

IR SPECTRUM
-----------

 Mode   freq       eps      Int      T**2         TX        TY        TZ
       cm**-1   L/(mol*cm) km/mol    a.u.
----------------------------------------------------------------------------
  6:    156.13   0.000312    1.57  0.000623  (-0.008951  0.008751 -0.021587)
  7:    173.60   0.000003    0.02  0.000006  ( 0.000896 -0.000843  0.002058)
  8:    396.53   0.004395   22.21  0.003459  (-0.052526 -0.023362  0.012407)
  9:    405.92   0.004174   21.09  0.003209  ( 0.020319 -0.019852  0.049011)
 10:    525.43   0.003520   17.79  0.002091  (-0.003204  0.041795  0.018268)
 11:    553.45   0.001234    6.23  0.000696  ( 0.022267 -0.007294 -0.012109)
 12:    571.37   0.000537    2.71  0.000293  ( 0.015928  0.003722 -0.005071)
 13:    597.72   0.009715   49.09  0.005072  ( 0.025499 -0.024917  0.061652)
 14:    706.08   0.011695   59.10  0.005169  ( 0.025765 -0.025194  0.062211)
 15:    738.94   0.002161   10.92  0.000913  (-0.010792  0.010585 -0.026156)
 16:    789.90   0.000373    1.89  0.000147  ( 0.002436  0.011369  0.003498)
 17:    797.33   0.009108   46.03  0.003565  (-0.021398  0.020914 -0.051669)
 18:    829.55   0.016506   83.41  0.006209  ( 0.028206 -0.027547  0.068227)
 19:    982.78   0.000040    0.20  0.000013  (-0.001218  0.001291 -0.003088)
 20:    986.96   0.000757    3.83  0.000239  (-0.005607  0.012421  0.007334)
 21:   1000.68   0.001248    6.31  0.000389  (-0.018071 -0.006132  0.004997)
 22:   1097.93   0.001453    7.34  0.000413  ( 0.014525  0.014215 -0.000252)
 23:   1211.69   0.014907   75.34  0.003839  (-0.002198  0.057089  0.023986)
 24:   1248.64   0.001697    8.57  0.000424  (-0.009336  0.015348  0.010066)
 25:   1390.97   0.000678    3.43  0.000152  ( 0.011192  0.004298 -0.002886)
 26:   1417.77   0.003893   19.67  0.000857  (-0.026127  0.004202  0.012515)
 27:   1441.29   0.019523   98.66  0.004227  ( 0.060278  0.015806 -0.018538)
 28:   1534.59   0.030793  155.62  0.006262  (-0.061430  0.031938  0.038318)
 29:   1719.41   0.016152   81.63  0.002931  ( 0.017369  0.049636  0.012885)
 30:   1865.38   0.131535  664.73  0.022005  (-0.026106 -0.138810 -0.045333)
 31:   1900.50   0.113736  574.78  0.018676  ( 0.089410 -0.077522 -0.068351)
 32:   3235.60   0.000358    1.81  0.000035  ( 0.004715 -0.002109 -0.002803)
 33:   3280.54   0.000662    3.34  0.000063  ( 0.003843 -0.005738 -0.003908)
 34:   3638.48   0.016757   84.68  0.001437  (-0.034601 -0.012381  0.009311)
 35:   3677.34   0.025847  130.62  0.002193  ( 0.015792  0.042759  0.010757)

--------------------------
THERMOCHEMISTRY AT 298.15K
--------------------------

Temperature         ...   298.15 K
Pressure            ...     1.00 atm
Total Mass          ...   112.09 AMU
Quasi RRHO          ...     True
Cut-Off Frequency   ...     1.00 cm^-1

Throughout the following assumptions are being made:
  (1) The electronic state is orbitally nondegenerate
  (2) There are no thermally accessible electronically excited states
  (3) Hindered rotations indicated by low frequency modes are not
      treated as such but are treated as vibrations and this may
      cause some error
  (4) All equations used are the standard statistical mechanics
      equations for an ideal gas
  (5) All vibrations are strictly harmonic

freq.     156.13  E(vib)   ...       0.40
freq.     173.60  E(vib)   ...       0.38
freq.     396.53  E(vib)   ...       0.20
freq.     405.92  E(vib)   ...       0.19
freq.     525.43  E(vib)   ...       0.13
freq.     553.45  E(vib)   ...       0.12
freq.     571.37  E(vib)   ...       0.11
freq.     597.72  E(vib)   ...       0.10
freq.     706.08  E(vib)   ...       0.07
freq.     738.94  E(vib)   ...       0.06
freq.     789.90  E(vib)   ...       0.05
freq.     797.33  E(vib)   ...       0.05
freq.     829.55  E(vib)   ...       0.04
freq.     982.78  E(vib)   ...       0.02
freq.     986.96  E(vib)   ...       0.02
freq.    1000.68  E(vib)   ...       0.02
freq.    1097.93  E(vib)   ...       0.02
freq.    1211.69  E(vib)   ...       0.01
freq.    1248.64  E(vib)   ...       0.01
freq.    1390.97  E(vib)   ...       0.00
freq.    1417.77  E(vib)   ...       0.00
freq.    1441.29  E(vib)   ...       0.00
freq.    1534.59  E(vib)   ...       0.00
freq.    1719.41  E(vib)   ...       0.00
freq.    1865.38  E(vib)   ...       0.00
freq.    1900.50  E(vib)   ...       0.00
freq.    3235.60  E(vib)   ...       0.00
freq.    3280.54  E(vib)   ...       0.00
freq.    3638.48  E(vib)   ...       0.00
freq.    3677.34  E(vib)   ...       0.00

------------
INNER ENERGY
------------

The inner energy is: U= E(el) + E(ZPE) + E(vib) + E(rot) + E(trans)
    E(el)   - is the total energy from the electronic structure calculation
              = E(kin-el) + E(nuc-el) + E(el-el) + E(nuc-nuc)
    E(ZPE)  - the the zero temperature vibrational energy from the frequency calculation
    E(vib)  - the the finite temperature correction to E(ZPE) due to population
              of excited vibrational states
    E(rot)  - is the rotational thermal energy
    E(trans)- is the translational thermal energy

Summary of contributions to the inner energy U:
Electronic energy                ...   -414.08127160 Eh
Zero point energy                ...      0.08855807 Eh      55.57 kcal/mol
Thermal vibrational correction   ...      0.00322154 Eh       2.02 kcal/mol
Thermal rotational correction    ...      0.00141627 Eh       0.89 kcal/mol
Thermal translational correction ...      0.00141627 Eh       0.89 kcal/mol
-----------------------------------------------------------------------
Total thermal energy                   -413.98665946 Eh

Summary of corrections to the electronic energy:
(perhaps to be used in another calculation)
Total thermal correction                  0.00605408 Eh       3.80 kcal/mol
Non-thermal (ZPE) correction              0.08855807 Eh      55.57 kcal/mol
-----------------------------------------------------------------------
Total correction                          0.09461215 Eh      59.37 kcal/mol

--------
ENTHALPY
--------

The enthalpy is H = U + kB*T
                kB is Boltzmann's constant
Total thermal energy              ...   -413.98665946 Eh
Thermal Enthalpy correction       ...      0.00094421 Eh       0.59 kcal/mol
-----------------------------------------------------------------------
Total Enthalpy                    ...   -413.98571525 Eh

Note: Only C1 symmetry has been detected, increase convergence thresholds
      if your molecule has a higher symmetry. Symmetry factor of 1.0 is
      used for the rotational entropy correction.

Note: Rotational entropy computed according to Herzberg
Infrared and Raman Spectra, Chapter V,1, Van Nostrand Reinhold, 1945
Point Group:  C1, Symmetry Number:   1
Rotational constants in cm-1:     0.130127     0.067574     0.044477

Vibrational entropy computed according to the QRRHO of S. Grimme
Chem.Eur.J. 2012 18 9955 using a reference frequency of 100.0 cm-1

-------
ENTROPY
-------

The entropy contributions are T*S = T*(S(el)+S(vib)+S(rot)+S(trans))
     S(el)   - electronic entropy
     S(vib)  - vibrational entropy
     S(rot)  - rotational entropy
     S(trans)- translational entropy
The entropies will be listed as multiplied by the temperature to get
units of energy

Electronic entropy                ...      0.00000000 Eh      0.00 kcal/mol
Vibrational entropy               ...      0.00505592 Eh      3.17 kcal/mol
Rotational entropy                ...      0.01321510 Eh      8.29 kcal/mol
Translational entropy             ...      0.01903286 Eh     11.94 kcal/mol
-----------------------------------------------------------------------
Final entropy term                ...      0.03730387 Eh     23.41 kcal/mol

In case the symmetry of your molecule has not been determined correctly
or in case you have a reason to use a different symmetry number we print
out the resulting rotational entropy values for sn=1,12:

 non-linear molecules -----------------------------------
|  sn= 1 | S(rot)=       0.01321510 Eh      8.29 kcal/mol|
|  sn= 2 | S(rot)=       0.01256064 Eh      7.88 kcal/mol|
|  sn= 3 | S(rot)=       0.01217781 Eh      7.64 kcal/mol|
|  sn= 4 | S(rot)=       0.01190619 Eh      7.47 kcal/mol|
|  sn= 5 | S(rot)=       0.01169550 Eh      7.34 kcal/mol|
|  sn= 6 | S(rot)=       0.01152335 Eh      7.23 kcal/mol|
|  sn= 7 | S(rot)=       0.01137781 Eh      7.14 kcal/mol|
|  sn= 8 | S(rot)=       0.01125173 Eh      7.06 kcal/mol|
|  sn= 9 | S(rot)=       0.01114052 Eh      6.99 kcal/mol|
|  sn=10 | S(rot)=       0.01104104 Eh      6.93 kcal/mol|
|  sn=11 | S(rot)=       0.01095105 Eh      6.87 kcal/mol|
|  sn=12 | S(rot)=       0.01086890 Eh      6.82 kcal/mol|
 linear molecules ---------------------------------------
|  Dinfh | S(rot)=       0.00826483 Eh      5.19 kcal/mol|
|  Cinfv | S(rot)=       0.00891929 Eh      5.60 kcal/mol|
 --------------------------------------------------------

-------------------
GIBBS FREE ENERGY
-------------------

The Gibbs free energy is G = H - T*S

Total enthalpy                    ...   -413.98571525 Eh
Total entropy correction          ...     -0.03730387 Eh    -23.41 kcal/mol
-----------------------------------------------------------------------
Final Gibbs free energy         ...   -414.02301912 Eh

For completeness - the Gibbs free energy minus the electronic energy

                             ****ORCA TERMINATED NORMALLY****
TOTAL RUN TIME: 0 days 0 hours 0 minutes 47 seconds 669 msec
