                         Program Version 6.0.1  -  RELEASE   -
|  1> %pal nprocs 16 end
|  2> %maxcore 2000
|  3> ! pbe0 d4 def2-SVP Opt RIJCOSX Def2/J defgrid3 TightSCF
|  4>
|  5> %geom
|  6>     MaxIter 200
|  7>     #Convergence tight
|  8> end
|  9>
| 10> * xyzfile 0 1 uracil_s0_s.xyz
| 11>
| 12>
| 13>                          ****END OF INPUT****
 Total Charge           Charge          ....    0
 Multiplicity           Mult            ....    1
 Number of Electrons    NEL             ....   58
Dispersion correction           -0.009694130
FINAL SINGLE POINT ENERGY      -414.074760874352
Dispersion correction             ... done (  0.0 sec)
Dispersion correction           -0.009760708
FINAL SINGLE POINT ENERGY      -414.080423384236
Dispersion correction             ... done (  0.0 sec)
Dispersion correction           -0.009762221
FINAL SINGLE POINT ENERGY      -414.081135351081
Dispersion correction             ... done (  0.0 sec)
FINAL SINGLE POINT ENERGY      -414.081253092233
FINAL SINGLE POINT ENERGY      -414.081267111702
Dispersion correction             ... done (  0.0 sec)
Dispersion correction           -0.009749862
FINAL SINGLE POINT ENERGY      -414.081270377605
Dispersion correction             ... done (  0.0 sec)
Dispersion correction           -0.009750302
FINAL SINGLE POINT ENERGY      -414.081271451662
Dispersion correction             ... done (  0.0 sec)
                    ***********************HURRAY********************

CARTESIAN COORDINATES (ANGSTROEM)
---------------------------------
  C      0.714123    1.012224    0.553675
  N      1.488072    0.073180   -0.146480
  C      1.150596   -1.207575   -0.524939
  N     -0.134035   -1.563586   -0.137278
  C     -0.976315   -0.732774    0.546980
  C     -0.613397    0.517887    0.902398
  O      1.880974   -1.954516   -1.129227
  H     -1.282636    1.180838    1.447013
  O      1.159404    2.106817    0.811265
  H      2.421340    0.374717   -0.410798
  H     -0.415929   -2.499834   -0.399300
  H     -1.957967   -1.148134    0.785012

 Multiplicity           Mult            ....    1
 Number of Electrons    NEL             ....   58
 Basis Dimension        Dim             ....  132

ORBITAL ENERGIES
----------------

  NO   OCC          E(Eh)            E(eV)
   0   2.0000     -19.196314      -522.3583
   1   2.0000     -19.188778      -522.1532
   2   2.0000     -14.470131      -393.7523
   3   2.0000     -14.449225      -393.1834
   4   2.0000     -10.387862      -282.6681
   5   2.0000     -10.353164      -281.7239
   6   2.0000     -10.323170      -280.9077
   7   2.0000     -10.255482      -279.0658
   8   2.0000      -1.106488       -30.1091
   9   2.0000      -1.069082       -29.0912
  10   2.0000      -1.007354       -27.4115
  11   2.0000      -0.950658       -25.8687
  12   2.0000      -0.820819       -22.3356
  13   2.0000      -0.714836       -19.4517
  14   2.0000      -0.687179       -18.6991
  15   2.0000      -0.619666       -16.8620
  16   2.0000      -0.584487       -15.9047
  17   2.0000      -0.540894       -14.7185
  18   2.0000      -0.507134       -13.7998
  19   2.0000      -0.489828       -13.3289
  20   2.0000      -0.468407       -12.7460
  21   2.0000      -0.441302       -12.0084
  22   2.0000      -0.436454       -11.8765
  23   2.0000      -0.429061       -11.6754
  24   2.0000      -0.392256       -10.6738
  25   2.0000      -0.315791        -8.5931
  26   2.0000      -0.305130        -8.3030
  27   2.0000      -0.283220        -7.7068
  28   2.0000      -0.268856        -7.3159
  29   0.0000      -0.042305        -1.1512
  30   0.0000       0.014808         0.4030
  31   0.0000       0.039320         1.0699
  32   0.0000       0.090752         2.4695
  33   0.0000       0.096060         2.6139

MULLIKEN ATOMIC CHARGES
-----------------------
   0 C :    0.239033
   1 N :   -0.230254
   2 C :    0.264265
   3 N :   -0.198220
   4 C :    0.145114
   5 C :   -0.189131
   6 O :   -0.243855
   7 H :    0.053637
   8 O :   -0.236975
   9 H :    0.167566
  10 H :    0.167688
  11 H :    0.061131
Sum of atomic charges:   -0.0000000

LOEWDIN ATOMIC CHARGES
----------------------
   0 C :    0.071803
   1 N :   -0.006733
   2 C :    0.082022
   3 N :    0.016768
   4 C :    0.060838
   5 C :   -0.124642
   6 O :   -0.213499
   7 H :    0.052179
   8 O :   -0.194564
   9 H :    0.105823
  10 H :    0.104656
  11 H :    0.045348

  Mayer bond orders larger than 0.100000
B(  0-C ,  1-N ) :   1.0235 B(  0-C ,  5-C ) :   1.0545 B(  0-C ,  8-O ) :   2.1042
B(  1-N ,  2-C ) :   1.0922 B(  1-N ,  9-H ) :   0.9000 B(  2-C ,  3-N ) :   1.0443
B(  2-C ,  6-O ) :   2.1220 B(  3-N ,  4-C ) :   1.1588 B(  3-N , 10-H ) :   0.9150
B(  4-C ,  5-C ) :   1.6777 B(  4-C , 11-H ) :   0.9562 B(  5-C ,  7-H ) :   0.9731

Dispersion correction           -0.009750613
FINAL SINGLE POINT ENERGY      -414.081271608623

DIPOLE MOMENT
-------------

Method             : SCF
Type of density    : Electron Density
Multiplicity       :   1
Irrep              :   0
Energy             :  -414.0715209954800002 Eh
Relativity type    :
Basis              : AO
                                X                 Y                 Z
Electronic contribution:      2.097447348       0.168255246      -0.798834795
Nuclear contribution   :     -3.464089905      -1.106846415       0.985092744
                        -----------------------------------------
Total Dipole Moment    :     -1.366642557      -0.938591169       0.186257949
                        -----------------------------------------
Magnitude (a.u.)       :      1.668339679
Magnitude (Debye)      :      4.240582460

Rotational constants in cm-1:             0.130127             0.067574             0.044477
Rotational constants in MHz :          3901.109384          2025.805023          1333.389791

                             ****ORCA TERMINATED NORMALLY****
TOTAL RUN TIME: 0 days 0 hours 1 minutes 4 seconds 603 msec
