                         Program Version 6.0.1  -  RELEASE   -
|  1> %pal nprocs 16 end
|  2> %maxcore 2000
|  3> ! pbe0 d4 def2-SVP RIJCOSX Def2/J defgrid3 TightSCF ESD(ABS)
|  4>
|  5> %tddft
|  6>     TDA true # TDA approx
|  7>     NRoots 3 # number of electronic states
|  8> end
|  9>
| 10> %ESD
| 11>   GSHESSIAN  "uracil_s0_freq.hess"
| 12>   DOHT       TRUE
| 13>   STATES     1,2
| 14>   UNIT       NM
| 15>   HESSFLAG   VG
| 16>   LINEW      50
| 17>   INLINEW    150
| 18>   LINES      GAUSS
| 19>   SPECRANGE  10000,50000
| 20>   UNIT       NM
| 21>   PRINTLEVEL HIGH
| 22>   USEJ       FALSE
| 23>   COORDSYS   INT
| 24> END
| 25>
| 26> * xyzfile 0 1 uracil_s0.xyz
| 27>
| 28>
| 29>                          ****END OF INPUT****

CARTESIAN COORDINATES (ANGSTROEM)
---------------------------------
  C      0.092584    1.239510    0.463342
  N      0.866533    0.300465   -0.236813
  C      0.529057   -0.980289   -0.615272
  N     -0.755574   -1.336301   -0.227611
  C     -1.597854   -0.505489    0.456647
  C     -1.234936    0.745173    0.812065
  O      1.259436   -1.727230   -1.219560
  H     -1.904175    1.408123    1.356680
  O      0.537865    2.334103    0.720932
  H      1.799801    0.602003   -0.501131
  H     -1.037468   -2.272549   -0.489633
  H     -2.579506   -0.920849    0.694678

 Total Charge           Charge          ....    0
 Multiplicity           Mult            ....    1
 Number of Electrons    NEL             ....   58
 Basis Dimension        Dim             ....  132

ORBITAL ENERGIES
----------------

  NO   OCC          E(Eh)            E(eV)
   0   2.0000     -19.196322      -522.3585
   1   2.0000     -19.188830      -522.1546
   2   2.0000     -14.470108      -393.7517
   3   2.0000     -14.449141      -393.1811
   4   2.0000     -10.387798      -282.6663
   5   2.0000     -10.353117      -281.7226
   6   2.0000     -10.323144      -280.9070
   7   2.0000     -10.255441      -279.0647
   8   2.0000      -1.106465       -30.1084
   9   2.0000      -1.069081       -29.0912
  10   2.0000      -1.007336       -27.4110
  11   2.0000      -0.950624       -25.8678
  12   2.0000      -0.820795       -22.3350
  13   2.0000      -0.714812       -19.4510
  14   2.0000      -0.687146       -18.6982
  15   2.0000      -0.619647       -16.8614
  16   2.0000      -0.584462       -15.9040
  17   2.0000      -0.540871       -14.7178
  18   2.0000      -0.507108       -13.7991
  19   2.0000      -0.489821       -13.3287
  20   2.0000      -0.468399       -12.7458
  21   2.0000      -0.441296       -12.0083
  22   2.0000      -0.436451       -11.8764
  23   2.0000      -0.429051       -11.6751
  24   2.0000      -0.392238       -10.6733
  25   2.0000      -0.315787        -8.5930
  26   2.0000      -0.305113        -8.3025
  27   2.0000      -0.283226        -7.7070
  28   2.0000      -0.268843        -7.3156
  29   0.0000      -0.042289        -1.1507
  30   0.0000       0.014829         0.4035
  31   0.0000       0.039323         1.0700
  32   0.0000       0.090763         2.4698
  33   0.0000       0.096065         2.6141

----------------------------------------------------------------------------------------------------
                     ABSORPTION SPECTRUM VIA TRANSITION ELECTRIC DIPOLE MOMENTS
----------------------------------------------------------------------------------------------------
     Transition      Energy     Energy  Wavelength fosc(D2)      D2        DX        DY        DZ
                      (eV)      (cm-1)    (nm)                 (au**2)    (au)      (au)      (au)
----------------------------------------------------------------------------------------------------
  0-1A  ->  1-1A    4.853977   39150.0   255.4   0.000239991   0.00202   0.01607  -0.01595   0.03880
  0-1A  ->  2-1A    5.706693   46027.6   217.3   0.159298939   1.13938   0.19786   0.99836   0.32174
  0-1A  ->  3-1A    6.064255   48911.5   204.5   0.000001028   0.00001   0.00092  -0.00069   0.00236

Dispersion correction             ... done (  0.1 sec)

MULLIKEN ATOMIC CHARGES
-----------------------
   0 C :    0.223218
   1 N :   -0.245896
   2 C :    0.284562
   3 N :   -0.201363
   4 C :    0.026454
   5 C :   -0.184416
   6 O :   -0.234164
   7 H :    0.039430
   8 O :   -0.071664
   9 H :    0.165637
  10 H :    0.159871
  11 H :    0.038330
Sum of atomic charges:   -0.0000000

LOEWDIN ATOMIC CHARGES
----------------------
   0 C :    0.007402
   1 N :   -0.002885
   2 C :    0.096620
   3 N :    0.009419
   4 C :   -0.079270
   5 C :   -0.155472
   6 O :   -0.196616
   7 H :    0.044731
   8 O :    0.043381
   9 H :    0.101262
  10 H :    0.099972
  11 H :    0.031456

  Mayer bond orders larger than 0.100000
B(  0-C ,  1-N ) :   1.0067 B(  0-C ,  5-C ) :   1.3289 B(  0-C ,  8-O ) :   1.3975
B(  1-N ,  2-C ) :   1.0407 B(  1-N ,  9-H ) :   0.9059 B(  2-C ,  3-N ) :   1.1305
B(  2-C ,  6-O ) :   2.0749 B(  3-N ,  4-C ) :   1.0344 B(  3-N , 10-H ) :   0.9206
B(  4-C ,  5-C ) :   1.3893 B(  4-C , 11-H ) :   0.9616 B(  5-C ,  7-H ) :   0.9726

Dispersion correction           -0.009750613
FINAL SINGLE POINT ENERGY      -413.902891228144

DIPOLE MOMENT
-------------

Method             : TDA/CIS
Type of density    : Electron Density
Level              : Relaxed density
State              :   1
Multiplicity       :   1
Irrep              :   0
Energy             :     0.0000000000000000 Eh
Relativity type    :
Basis              : AO
                                X                 Y                 Z
Electronic contribution:      3.028724791       1.157090473      -0.784692593
Nuclear contribution   :     -3.464089905      -1.106846415       0.985092744
                        -----------------------------------------
Total Dipole Moment    :     -0.435365114       0.050244058       0.200400151
                        -----------------------------------------
Magnitude (a.u.)       :      0.481899853
Magnitude (Debye)      :      1.224892082

Rotational constants in cm-1:             0.130127             0.067574             0.044477
Rotational constants in MHz :          3901.109384          2025.805023          1333.389791

                             ****ORCA TERMINATED NORMALLY****
TOTAL RUN TIME: 0 days 0 hours 13 minutes 27 seconds 545 msec
